HEADER
"PSFversion" "1.00"
"Zv" "Z"
"Av" "A"
