HEADER
"PSFversion" "1.00"
"M1v" "M1"
"M1n" "cmosp18_nfet_symbol"
"M0v" "M0"
"M0n" "cmosp18_pfet_symbol"
