HEADER
"PSFversion" "1.00"
"VDD!v" "VDD!"
"GND!v" "GND!"
"__NEXT_FILE__" "INVERTER3_inv3_schematic"
