HEADER
"PSFversion" "1.00"
"__NEXT_FILE__" "INVERTER3_inv3_schematic"
