HEADER
"PSFversion" "1.00"
"M4v" "+5"
"M4n" "cmosp18_pfet_ivpcell"
"M5v" "+4"
"M5n" "cmosp18_pfet_ivpcell"
"M6v" "+3"
"M6n" "cmosp18_pfet_ivpcell"
"M7v" "+0"
"M7n" "cmosp18_nfet_ivpcell"
"M8v" "+2"
"M8n" "cmosp18_nfet_ivpcell"
"M9v" "+1"
"M9n" "cmosp18_nfet_ivpcell"
