HEADER
"PSFversion" "1.00"
"+5v" "M4"
"+5n" "cmosp18_pfet_ivpcell"
"+4v" "M5"
"+4n" "cmosp18_pfet_ivpcell"
"+3v" "M6"
"+3n" "cmosp18_pfet_ivpcell"
"+0v" "M7"
"+0n" "cmosp18_nfet_ivpcell"
"+2v" "M8"
"+2n" "cmosp18_nfet_ivpcell"
"+1v" "M9"
"+1n" "cmosp18_nfet_ivpcell"
