HEADER
"PSFversion" "1.00"
"Av" "A"
"Bv" "B"
"Zv" "Z"
"1v" "6"
"2v" "7"
"3v" "8"
