HEADER
"PSFversion" "1.00"
"Zv" "Z"
"Av" "A"
"net036v" "net036"
"Bv" "B"
