HEADER
"PSFversion" "1.00"
"M3v" "M3"
"M3n" "cmosp18_nfet_symbol"
"M2v" "M2"
"M2n" "cmosp18_nfet_symbol"
"M1v" "M1"
"M1n" "cmosp18_pfet_symbol"
"M0v" "M0"
"M0n" "cmosp18_pfet_symbol"
