HEADER
"PSFversion" "1.00"
"__NEXT_FILE__" "NOR_nor_schematic"
