HEADER
"PSFversion" "1.00"
"M0v" "+1"
"M0n" "cmosp18_pfet_ivpcell"
"M1v" "+0"
"M1n" "cmosp18_nfet_ivpcell"
