HEADER
"PSFversion" "1.00"
"GND!v" "GND!"
"VDD!v" "VDD!"
"__NEXT_FILE__" "NAND_nand_schematic"
