HEADER
"PSFversion" "1.00"
"__NEXT_FILE__" "NAND_nand_schematic"
