HEADER
"PSFversion" "1.00"
"net11v" "net11"
"Av" "A"
"Zv" "Z"
"Bv" "B"
"net049v" "net049"
