HEADER
"PSFversion" "1.00"
"M5v" "M5"
"M5n" "cmosp18_nfet_symbol"
"M4v" "M4"
"M4n" "cmosp18_nfet_symbol"
"M3v" "M3"
"M3n" "cmosp18_nfet_symbol"
"M2v" "M2"
"M2n" "cmosp18_pfet_symbol"
"M1v" "M1"
"M1n" "cmosp18_pfet_symbol"
"M0v" "M0"
"M0n" "cmosp18_pfet_symbol"
