HEADER
"PSFversion" "1.00"
"net10v" "net10"
"net26v" "net26"
"Bv" "B"
"Av" "A"
"Zv" "Z"
