HEADER
"PSFversion" "1.00"
"__NEXT_FILE__" "AND2_and_schematic"
