HEADER
"PSFversion" "1.00"
"Av" "A"
"Bv" "B"
"Zv" "Z"
"6v" "1"
"7v" "2"
